###############################################################################
# Slade, P.G.;Self, P.G.;Quirk, J.P. (1998)
# Clays and Clay Minerals (29,1981-) 46, 629-635
# The interlayer structure of La-vermiculite
# 
# CIF by ICSD-for-WWW,  Copyright 2003 FIZ-Karlsruhe & A.W.Hewat (hewat@ill.fr)
# NOT TO BE PUBLISHED IN ANY FORM. See http://icsd.ill.fr/icsd/conditions.html
###############################################################################

data_87449-ICSD
_database_code_ICSD                87449
_audit_creation_date               2000-12-16
_chemical_name_systematic
'Lanthanum aluminium iron magnesium alumosilicate hydroxide hydrate *'
_chemical_formula_structural       
'La0.65 (Al0.251 Fe0.077 Mg5.565) (Si5.735 Al2.265) O20 (O H)4 (H2 O)14'
_chemical_formula_sum              
'H32 Al2.516 Fe0.077 La0.65 Mg5.565 O38 Si5.735'
_publ_section_title                
'H32 Al2.516 Fe0.077 La0.65 Mg5.565 O38 Si5.735'
loop_
_citation_id
_citation_journal_abbrev
_citation_year
_citation_journal_volume
_citation_page_first
_citation_page_last
_citation_journal_id_ASTM
primary 'Clays and Clay Minerals (29,1981-)' 1998 46 629 635 CLCMAB
loop_
_publ_author_name
Slade, P.G.;Self, P.G.;Quirk, J.P.
_cell_length_a                     5.33(5)
_cell_length_b                     9.18(6)
_cell_length_c                     15.13(9)
_cell_angle_alpha                  90.
_cell_angle_beta                   96.82(7)
_cell_angle_gamma                  90.
_cell_volume                       735.0609
_cell_formula_units_Z              1.000
_symmetry_space_group_name_H-M     'C 1 2/m 1'
_symmetry_Int_Tables_number        12
_refine_ls_R_factor_all            0.1757
loop_
_symmetry_equiv_pos_site_id
_symmetry_equiv_pos_as_xyz
   1   '-x, y, -z'
   2   '-x, -y, -z'
   3   'x, -y, z'
   4   'x, y, z'
   5   '-x+1/2, y+1/2, -z'
   6   '-x+1/2, -y+1/2, -z'
   7   'x+1/2, -y+1/2, z'
   8   'x+1/2, y+1/2, z'
loop_
_atom_type_symbol
_atom_type_oxidation_number
Al3+     3.
Fe3+     3.
Mg2+     2.
Al3+     3.
Fe3+     3.
Mg2+     2.
O2-     -2.
Si4+     4.
Al3+     3.
O2-     -2.
La3+     3.
O2-     -2.
H1+     1.
loop_
_atom_site_label
_atom_site_type_symbol
_atom_site_symmetry_multiplicity
_atom_site_Wyckoff_symbol
_atom_site_fract_x
_atom_site_fract_y
_atom_site_fract_z
_atom_site_B_iso_or_equiv
_atom_site_occupancy
Al1 Al+3 2 b 0 0.5 0 0.49 0.0418
Fe1 Fe+3 2 b 0 0.5 0 0.49 0.0128
Mg1 Mg+2 2 a 0 0 0 0.49 0.9275
Al2 Al+3 4 g 0 0.167 0 0.38 0.0418
Fe2 Fe+3 4 g 0 0.167 0 0.38 0.0128
Mg2 Mg+2 4 g 0 0.167 0 0.38 0.9275
O1 O-2   8 j 0.358(1) 0.167 0.0716(5) 0.64 1.
O2 O-2   4 i 0.859(1) 0 0.0698(5) 0.64 1.
Si1 Si+4 8 j 0.394(1) 0.167 0.1818(5) 0.67 0.7169
Al3 Al+3 8 j 0.394(1) 0.167 0.1818(5) 0.67 0.2831
O3 O-2   8 j 0.143(2) 0.236(1) 0.2222(6) 1.39 1.
O4 O-2   4 i 0.438(2) 0 0.2209(6) 1.56 1.
La1 La+3 2 c 0.5 0.5 0.5 11.25 0.325
O5 O-2   4 i 0.479(9) 0.5 0.336(7) 10.62 0.5
O6 O-2   4 i 0.000(9) 0.5 0.431(7) 6.82 0.5
O7 O-2   8 j 0.265(9) 0.261(6) 0.435(7) 20.48 0.5
O8 O-2   4 i 0.167 0.5 0.396(7) 3.83 0.5
O9 O-2   8 j 0.579(9) 0.351(6) 0.394(7) 5.46 0.5
#End of data_87449-ICSD

